+ 0 0 1 cbr 1000 ------- 1 0.0 2.0 0 0
- 0 0 1 cbr 1000 ------- 1 0.0 2.0 0 0
+ 0 0 1 cbr 1000 ------- 1 0.0 2.0 1 1
+ 0 0 1 cbr 1000 ------- 1 0.0 2.0 2 2
+ 0 0 1 cbr 1000 ------- 1 0.0 2.0 3 3
+ 0 0 1 cbr 1000 ------- 1 0.0 2.0 4 4
+ 0 3 1 cbr 1000 ------- 2 3.0 2.0 0 5
- 0 3 1 cbr 1000 ------- 2 3.0 2.0 0 5
+ 0 3 1 cbr 1000 ------- 2 3.0 2.0 1 6
+ 0 3 1 cbr 1000 ------- 2 3.0 2.0 2 7
+ 0 3 1 cbr 1000 ------- 2 3.0 2.0 3 8
+ 0 3 1 cbr 1000 ------- 2 3.0 2.0 4 9
- 8e-05 0 1 cbr 1000 ------- 1 0.0 2.0 1 1
- 8e-05 3 1 cbr 1000 ------- 2 3.0 2.0 1 6
- 0.00016 0 1 cbr 1000 ------- 1 0.0 2.0 2 2
- 0.00016 3 1 cbr 1000 ------- 2 3.0 2.0 2 7
- 0.00024 0 1 cbr 1000 ------- 1 0.0 2.0 3 3
- 0.00024 3 1 cbr 1000 ------- 2 3.0 2.0 3 8
- 0.00032 0 1 cbr 1000 ------- 1 0.0 2.0 4 4
- 0.00032 3 1 cbr 1000 ------- 2 3.0 2.0 4 9
+ 0.001 0 1 cbr 1000 ------- 1 0.0 2.0 5 10
- 0.001 0 1 cbr 1000 ------- 1 0.0 2.0 5 10
+ 0.001 0 1 cbr 1000 ------- 1 0.0 2.0 6 11
+ 0.001 0 1 cbr 1000 ------- 1 0.0 2.0 7 12
+ 0.001 0 1 cbr 1000 ------- 1 0.0 2.0 8 13
+ 0.001 0 1 cbr 1000 ------- 1 0.0 2.0 9 14
+ 0.001 3 1 cbr 1000 ------- 2 3.0 2.0 5 15
- 0.001 3 1 cbr 1000 ------- 2 3.0 2.0 5 15
+ 0.001 3 1 cbr 1000 ------- 2 3.0 2.0 6 16
+ 0.001 3 1 cbr 1000 ------- 2 3.0 2.0 7 17
+ 0.001 3 1 cbr 1000 ------- 2 3.0 2.0 8 18
+ 0.001 3 1 cbr 1000 ------- 2 3.0 2.0 9 19
- 0.00108 0 1 cbr 1000 ------- 1 0.0 2.0 6 11
- 0.00108 3 1 cbr 1000 ------- 2 3.0 2.0 6 16
- 0.00116 0 1 cbr 1000 ------- 1 0.0 2.0 7 12
- 0.00116 3 1 cbr 1000 ------- 2 3.0 2.0 7 17
- 0.00124 0 1 cbr 1000 ------- 1 0.0 2.0 8 13
- 0.00124 3 1 cbr 1000 ------- 2 3.0 2.0 8 18
- 0.00132 0 1 cbr 1000 ------- 1 0.0 2.0 9 14
- 0.00132 3 1 cbr 1000 ------- 2 3.0 2.0 9 19
+ 0.002 0 1 cbr 1000 ------- 1 0.0 2.0 10 20
- 0.002 0 1 cbr 1000 ------- 1 0.0 2.0 10 20
+ 0.002 0 1 cbr 1000 ------- 1 0.0 2.0 11 21
+ 0.002 0 1 cbr 1000 ------- 1 0.0 2.0 12 22
+ 0.002 0 1 cbr 1000 ------- 1 0.0 2.0 13 23
+ 0.002 0 1 cbr 1000 ------- 1 0.0 2.0 14 24
+ 0.002 3 1 cbr 1000 ------- 2 3.0 2.0 10 25
- 0.002 3 1 cbr 1000 ------- 2 3.0 2.0 10 25
+ 0.002 3 1 cbr 1000 ------- 2 3.0 2.0 11 26
+ 0.002 3 1 cbr 1000 ------- 2 3.0 2.0 12 27
+ 0.002 3 1 cbr 1000 ------- 2 3.0 2.0 13 28
+ 0.002 3 1 cbr 1000 ------- 2 3.0 2.0 14 29
- 0.00208 0 1 cbr 1000 ------- 1 0.0 2.0 11 21
- 0.00208 3 1 cbr 1000 ------- 2 3.0 2.0 11 26
- 0.00216 0 1 cbr 1000 ------- 1 0.0 2.0 12 22
- 0.00216 3 1 cbr 1000 ------- 2 3.0 2.0 12 27
- 0.00224 0 1 cbr 1000 ------- 1 0.0 2.0 13 23
- 0.00224 3 1 cbr 1000 ------- 2 3.0 2.0 13 28
- 0.00232 0 1 cbr 1000 ------- 1 0.0 2.0 14 24
- 0.00232 3 1 cbr 1000 ------- 2 3.0 2.0 14 29
+ 0.003 0 1 cbr 1000 ------- 1 0.0 2.0 15 30
- 0.003 0 1 cbr 1000 ------- 1 0.0 2.0 15 30
+ 0.003 0 1 cbr 1000 ------- 1 0.0 2.0 16 31
+ 0.003 0 1 cbr 1000 ------- 1 0.0 2.0 17 32
+ 0.003 0 1 cbr 1000 ------- 1 0.0 2.0 18 33
+ 0.003 0 1 cbr 1000 ------- 1 0.0 2.0 19 34
+ 0.003 3 1 cbr 1000 ------- 2 3.0 2.0 15 35
- 0.003 3 1 cbr 1000 ------- 2 3.0 2.0 15 35
+ 0.003 3 1 cbr 1000 ------- 2 3.0 2.0 16 36
+ 0.003 3 1 cbr 1000 ------- 2 3.0 2.0 17 37
+ 0.003 3 1 cbr 1000 ------- 2 3.0 2.0 18 38
+ 0.003 3 1 cbr 1000 ------- 2 3.0 2.0 19 39
- 0.00308 0 1 cbr 1000 ------- 1 0.0 2.0 16 31
- 0.00308 3 1 cbr 1000 ------- 2 3.0 2.0 16 36
- 0.00316 0 1 cbr 1000 ------- 1 0.0 2.0 17 32
- 0.00316 3 1 cbr 1000 ------- 2 3.0 2.0 17 37
- 0.00324 0 1 cbr 1000 ------- 1 0.0 2.0 18 33
- 0.00324 3 1 cbr 1000 ------- 2 3.0 2.0 18 38
- 0.00332 0 1 cbr 1000 ------- 1 0.0 2.0 19 34
- 0.00332 3 1 cbr 1000 ------- 2 3.0 2.0 19 39
+ 0.004 0 1 cbr 1000 ------- 1 0.0 2.0 20 40
- 0.004 0 1 cbr 1000 ------- 1 0.0 2.0 20 40
+ 0.004 0 1 cbr 1000 ------- 1 0.0 2.0 21 41
+ 0.004 0 1 cbr 1000 ------- 1 0.0 2.0 22 42
+ 0.004 0 1 cbr 1000 ------- 1 0.0 2.0 23 43
+ 0.004 0 1 cbr 1000 ------- 1 0.0 2.0 24 44
+ 0.004 3 1 cbr 1000 ------- 2 3.0 2.0 20 45
- 0.004 3 1 cbr 1000 ------- 2 3.0 2.0 20 45
+ 0.004 3 1 cbr 1000 ------- 2 3.0 2.0 21 46
+ 0.004 3 1 cbr 1000 ------- 2 3.0 2.0 22 47
+ 0.004 3 1 cbr 1000 ------- 2 3.0 2.0 23 48
+ 0.004 3 1 cbr 1000 ------- 2 3.0 2.0 24 49
- 0.00408 0 1 cbr 1000 ------- 1 0.0 2.0 21 41
- 0.00408 3 1 cbr 1000 ------- 2 3.0 2.0 21 46
- 0.00416 0 1 cbr 1000 ------- 1 0.0 2.0 22 42
- 0.00416 3 1 cbr 1000 ------- 2 3.0 2.0 22 47
- 0.00424 0 1 cbr 1000 ------- 1 0.0 2.0 23 43
- 0.00424 3 1 cbr 1000 ------- 2 3.0 2.0 23 48
- 0.00432 0 1 cbr 1000 ------- 1 0.0 2.0 24 44
- 0.00432 3 1 cbr 1000 ------- 2 3.0 2.0 24 49
+ 0.005 0 1 cbr 1000 ------- 1 0.0 2.0 25 50
- 0.005 0 1 cbr 1000 ------- 1 0.0 2.0 25 50
+ 0.005 0 1 cbr 1000 ------- 1 0.0 2.0 26 51
+ 0.005 0 1 cbr 1000 ------- 1 0.0 2.0 27 52
+ 0.005 0 1 cbr 1000 ------- 1 0.0 2.0 28 53
+ 0.005 0 1 cbr 1000 ------- 1 0.0 2.0 29 54
+ 0.005 3 1 cbr 1000 ------- 2 3.0 2.0 25 55
- 0.005 3 1 cbr 1000 ------- 2 3.0 2.0 25 55
+ 0.005 3 1 cbr 1000 ------- 2 3.0 2.0 26 56
+ 0.005 3 1 cbr 1000 ------- 2 3.0 2.0 27 57
+ 0.005 3 1 cbr 1000 ------- 2 3.0 2.0 28 58
+ 0.005 3 1 cbr 1000 ------- 2 3.0 2.0 29 59
- 0.00508 0 1 cbr 1000 ------- 1 0.0 2.0 26 51
- 0.00508 3 1 cbr 1000 ------- 2 3.0 2.0 26 56
- 0.00516 0 1 cbr 1000 ------- 1 0.0 2.0 27 52
- 0.00516 3 1 cbr 1000 ------- 2 3.0 2.0 27 57
- 0.00524 0 1 cbr 1000 ------- 1 0.0 2.0 28 53
- 0.00524 3 1 cbr 1000 ------- 2 3.0 2.0 28 58
- 0.00532 0 1 cbr 1000 ------- 1 0.0 2.0 29 54
- 0.00532 3 1 cbr 1000 ------- 2 3.0 2.0 29 59
+ 0.006 0 1 cbr 1000 ------- 1 0.0 2.0 30 60
- 0.006 0 1 cbr 1000 ------- 1 0.0 2.0 30 60
+ 0.006 0 1 cbr 1000 ------- 1 0.0 2.0 31 61
+ 0.006 0 1 cbr 1000 ------- 1 0.0 2.0 32 62
+ 0.006 0 1 cbr 1000 ------- 1 0.0 2.0 33 63
+ 0.006 0 1 cbr 1000 ------- 1 0.0 2.0 34 64
+ 0.006 3 1 cbr 1000 ------- 2 3.0 2.0 30 65
- 0.006 3 1 cbr 1000 ------- 2 3.0 2.0 30 65
+ 0.006 3 1 cbr 1000 ------- 2 3.0 2.0 31 66
+ 0.006 3 1 cbr 1000 ------- 2 3.0 2.0 32 67
+ 0.006 3 1 cbr 1000 ------- 2 3.0 2.0 33 68
+ 0.006 3 1 cbr 1000 ------- 2 3.0 2.0 34 69
- 0.00608 0 1 cbr 1000 ------- 1 0.0 2.0 31 61
- 0.00608 3 1 cbr 1000 ------- 2 3.0 2.0 31 66
- 0.00616 0 1 cbr 1000 ------- 1 0.0 2.0 32 62
- 0.00616 3 1 cbr 1000 ------- 2 3.0 2.0 32 67
- 0.00624 0 1 cbr 1000 ------- 1 0.0 2.0 33 63
- 0.00624 3 1 cbr 1000 ------- 2 3.0 2.0 33 68
- 0.00632 0 1 cbr 1000 ------- 1 0.0 2.0 34 64
- 0.00632 3 1 cbr 1000 ------- 2 3.0 2.0 34 69
+ 0.007 0 1 cbr 1000 ------- 1 0.0 2.0 35 70
- 0.007 0 1 cbr 1000 ------- 1 0.0 2.0 35 70
+ 0.007 0 1 cbr 1000 ------- 1 0.0 2.0 36 71
+ 0.007 0 1 cbr 1000 ------- 1 0.0 2.0 37 72
+ 0.007 0 1 cbr 1000 ------- 1 0.0 2.0 38 73
+ 0.007 0 1 cbr 1000 ------- 1 0.0 2.0 39 74
+ 0.007 3 1 cbr 1000 ------- 2 3.0 2.0 35 75
- 0.007 3 1 cbr 1000 ------- 2 3.0 2.0 35 75
+ 0.007 3 1 cbr 1000 ------- 2 3.0 2.0 36 76
+ 0.007 3 1 cbr 1000 ------- 2 3.0 2.0 37 77
+ 0.007 3 1 cbr 1000 ------- 2 3.0 2.0 38 78
+ 0.007 3 1 cbr 1000 ------- 2 3.0 2.0 39 79
- 0.00708 0 1 cbr 1000 ------- 1 0.0 2.0 36 71
- 0.00708 3 1 cbr 1000 ------- 2 3.0 2.0 36 76
- 0.00716 0 1 cbr 1000 ------- 1 0.0 2.0 37 72
- 0.00716 3 1 cbr 1000 ------- 2 3.0 2.0 37 77
- 0.00724 0 1 cbr 1000 ------- 1 0.0 2.0 38 73
- 0.00724 3 1 cbr 1000 ------- 2 3.0 2.0 38 78
- 0.00732 0 1 cbr 1000 ------- 1 0.0 2.0 39 74
- 0.00732 3 1 cbr 1000 ------- 2 3.0 2.0 39 79
+ 0.008 0 1 cbr 1000 ------- 1 0.0 2.0 40 80
- 0.008 0 1 cbr 1000 ------- 1 0.0 2.0 40 80
+ 0.008 0 1 cbr 1000 ------- 1 0.0 2.0 41 81
+ 0.008 0 1 cbr 1000 ------- 1 0.0 2.0 42 82
+ 0.008 0 1 cbr 1000 ------- 1 0.0 2.0 43 83
+ 0.008 0 1 cbr 1000 ------- 1 0.0 2.0 44 84
+ 0.008 3 1 cbr 1000 ------- 2 3.0 2.0 40 85
- 0.008 3 1 cbr 1000 ------- 2 3.0 2.0 40 85
+ 0.008 3 1 cbr 1000 ------- 2 3.0 2.0 41 86
+ 0.008 3 1 cbr 1000 ------- 2 3.0 2.0 42 87
+ 0.008 3 1 cbr 1000 ------- 2 3.0 2.0 43 88
+ 0.008 3 1 cbr 1000 ------- 2 3.0 2.0 44 89
- 0.00808 0 1 cbr 1000 ------- 1 0.0 2.0 41 81
- 0.00808 3 1 cbr 1000 ------- 2 3.0 2.0 41 86
- 0.00816 0 1 cbr 1000 ------- 1 0.0 2.0 42 82
- 0.00816 3 1 cbr 1000 ------- 2 3.0 2.0 42 87
- 0.00824 0 1 cbr 1000 ------- 1 0.0 2.0 43 83
- 0.00824 3 1 cbr 1000 ------- 2 3.0 2.0 43 88
- 0.00832 0 1 cbr 1000 ------- 1 0.0 2.0 44 84
- 0.00832 3 1 cbr 1000 ------- 2 3.0 2.0 44 89
+ 0.009 0 1 cbr 1000 ------- 1 0.0 2.0 45 90
- 0.009 0 1 cbr 1000 ------- 1 0.0 2.0 45 90
+ 0.009 0 1 cbr 1000 ------- 1 0.0 2.0 46 91
+ 0.009 0 1 cbr 1000 ------- 1 0.0 2.0 47 92
+ 0.009 0 1 cbr 1000 ------- 1 0.0 2.0 48 93
+ 0.009 0 1 cbr 1000 ------- 1 0.0 2.0 49 94
+ 0.009 3 1 cbr 1000 ------- 2 3.0 2.0 45 95
- 0.009 3 1 cbr 1000 ------- 2 3.0 2.0 45 95
+ 0.009 3 1 cbr 1000 ------- 2 3.0 2.0 46 96
+ 0.009 3 1 cbr 1000 ------- 2 3.0 2.0 47 97
+ 0.009 3 1 cbr 1000 ------- 2 3.0 2.0 48 98
+ 0.009 3 1 cbr 1000 ------- 2 3.0 2.0 49 99
- 0.00908 0 1 cbr 1000 ------- 1 0.0 2.0 46 91
- 0.00908 3 1 cbr 1000 ------- 2 3.0 2.0 46 96
- 0.00916 0 1 cbr 1000 ------- 1 0.0 2.0 47 92
- 0.00916 3 1 cbr 1000 ------- 2 3.0 2.0 47 97
- 0.00924 0 1 cbr 1000 ------- 1 0.0 2.0 48 93
- 0.00924 3 1 cbr 1000 ------- 2 3.0 2.0 48 98
- 0.00932 0 1 cbr 1000 ------- 1 0.0 2.0 49 94
- 0.00932 3 1 cbr 1000 ------- 2 3.0 2.0 49 99
+ 0.01 0 1 cbr 1000 ------- 1 0.0 2.0 50 100
- 0.01 0 1 cbr 1000 ------- 1 0.0 2.0 50 100
+ 0.01 0 1 cbr 1000 ------- 1 0.0 2.0 51 101
+ 0.01 0 1 cbr 1000 ------- 1 0.0 2.0 52 102
+ 0.01 0 1 cbr 1000 ------- 1 0.0 2.0 53 103
+ 0.01 0 1 cbr 1000 ------- 1 0.0 2.0 54 104
+ 0.01 3 1 cbr 1000 ------- 2 3.0 2.0 50 105
- 0.01 3 1 cbr 1000 ------- 2 3.0 2.0 50 105
+ 0.01 3 1 cbr 1000 ------- 2 3.0 2.0 51 106
+ 0.01 3 1 cbr 1000 ------- 2 3.0 2.0 52 107
+ 0.01 3 1 cbr 1000 ------- 2 3.0 2.0 53 108
+ 0.01 3 1 cbr 1000 ------- 2 3.0 2.0 54 109
- 0.01008 0 1 cbr 1000 ------- 1 0.0 2.0 51 101
- 0.01008 3 1 cbr 1000 ------- 2 3.0 2.0 51 106
- 0.01016 0 1 cbr 1000 ------- 1 0.0 2.0 52 102
- 0.01016 3 1 cbr 1000 ------- 2 3.0 2.0 52 107
- 0.01024 0 1 cbr 1000 ------- 1 0.0 2.0 53 103
- 0.01024 3 1 cbr 1000 ------- 2 3.0 2.0 53 108
- 0.01032 0 1 cbr 1000 ------- 1 0.0 2.0 54 104
- 0.01032 3 1 cbr 1000 ------- 2 3.0 2.0 54 109
+ 0.011 0 1 cbr 1000 ------- 1 0.0 2.0 55 110
- 0.011 0 1 cbr 1000 ------- 1 0.0 2.0 55 110
+ 0.011 0 1 cbr 1000 ------- 1 0.0 2.0 56 111
+ 0.011 0 1 cbr 1000 ------- 1 0.0 2.0 57 112
+ 0.011 0 1 cbr 1000 ------- 1 0.0 2.0 58 113
+ 0.011 0 1 cbr 1000 ------- 1 0.0 2.0 59 114
+ 0.011 3 1 cbr 1000 ------- 2 3.0 2.0 55 115
- 0.011 3 1 cbr 1000 ------- 2 3.0 2.0 55 115
+ 0.011 3 1 cbr 1000 ------- 2 3.0 2.0 56 116
+ 0.011 3 1 cbr 1000 ------- 2 3.0 2.0 57 117
+ 0.011 3 1 cbr 1000 ------- 2 3.0 2.0 58 118
+ 0.011 3 1 cbr 1000 ------- 2 3.0 2.0 59 119
- 0.01108 0 1 cbr 1000 ------- 1 0.0 2.0 56 111
- 0.01108 3 1 cbr 1000 ------- 2 3.0 2.0 56 116
- 0.01116 0 1 cbr 1000 ------- 1 0.0 2.0 57 112
- 0.01116 3 1 cbr 1000 ------- 2 3.0 2.0 57 117
- 0.01124 0 1 cbr 1000 ------- 1 0.0 2.0 58 113
- 0.01124 3 1 cbr 1000 ------- 2 3.0 2.0 58 118
- 0.01132 0 1 cbr 1000 ------- 1 0.0 2.0 59 114
- 0.01132 3 1 cbr 1000 ------- 2 3.0 2.0 59 119
+ 0.012 0 1 cbr 1000 ------- 1 0.0 2.0 60 120
- 0.012 0 1 cbr 1000 ------- 1 0.0 2.0 60 120
+ 0.012 0 1 cbr 1000 ------- 1 0.0 2.0 61 121
+ 0.012 0 1 cbr 1000 ------- 1 0.0 2.0 62 122
+ 0.012 0 1 cbr 1000 ------- 1 0.0 2.0 63 123
+ 0.012 0 1 cbr 1000 ------- 1 0.0 2.0 64 124
+ 0.012 3 1 cbr 1000 ------- 2 3.0 2.0 60 125
- 0.012 3 1 cbr 1000 ------- 2 3.0 2.0 60 125
+ 0.012 3 1 cbr 1000 ------- 2 3.0 2.0 61 126
+ 0.012 3 1 cbr 1000 ------- 2 3.0 2.0 62 127
+ 0.012 3 1 cbr 1000 ------- 2 3.0 2.0 63 128
+ 0.012 3 1 cbr 1000 ------- 2 3.0 2.0 64 129
- 0.01208 0 1 cbr 1000 ------- 1 0.0 2.0 61 121
- 0.01208 3 1 cbr 1000 ------- 2 3.0 2.0 61 126
- 0.01216 0 1 cbr 1000 ------- 1 0.0 2.0 62 122
- 0.01216 3 1 cbr 1000 ------- 2 3.0 2.0 62 127
- 0.01224 0 1 cbr 1000 ------- 1 0.0 2.0 63 123
- 0.01224 3 1 cbr 1000 ------- 2 3.0 2.0 63 128
- 0.01232 0 1 cbr 1000 ------- 1 0.0 2.0 64 124
- 0.01232 3 1 cbr 1000 ------- 2 3.0 2.0 64 129
+ 0.013 0 1 cbr 1000 ------- 1 0.0 2.0 65 130
- 0.013 0 1 cbr 1000 ------- 1 0.0 2.0 65 130
+ 0.013 0 1 cbr 1000 ------- 1 0.0 2.0 66 131
+ 0.013 0 1 cbr 1000 ------- 1 0.0 2.0 67 132
+ 0.013 0 1 cbr 1000 ------- 1 0.0 2.0 68 133
+ 0.013 0 1 cbr 1000 ------- 1 0.0 2.0 69 134
+ 0.013 3 1 cbr 1000 ------- 2 3.0 2.0 65 135
- 0.013 3 1 cbr 1000 ------- 2 3.0 2.0 65 135
+ 0.013 3 1 cbr 1000 ------- 2 3.0 2.0 66 136
+ 0.013 3 1 cbr 1000 ------- 2 3.0 2.0 67 137
+ 0.013 3 1 cbr 1000 ------- 2 3.0 2.0 68 138
+ 0.013 3 1 cbr 1000 ------- 2 3.0 2.0 69 139
- 0.01308 0 1 cbr 1000 ------- 1 0.0 2.0 66 131
- 0.01308 3 1 cbr 1000 ------- 2 3.0 2.0 66 136
- 0.01316 0 1 cbr 1000 ------- 1 0.0 2.0 67 132
- 0.01316 3 1 cbr 1000 ------- 2 3.0 2.0 67 137
- 0.01324 0 1 cbr 1000 ------- 1 0.0 2.0 68 133
- 0.01324 3 1 cbr 1000 ------- 2 3.0 2.0 68 138
- 0.01332 0 1 cbr 1000 ------- 1 0.0 2.0 69 134
- 0.01332 3 1 cbr 1000 ------- 2 3.0 2.0 69 139
+ 0.014 0 1 cbr 1000 ------- 1 0.0 2.0 70 140
- 0.014 0 1 cbr 1000 ------- 1 0.0 2.0 70 140
+ 0.014 0 1 cbr 1000 ------- 1 0.0 2.0 71 141
+ 0.014 0 1 cbr 1000 ------- 1 0.0 2.0 72 142
+ 0.014 0 1 cbr 1000 ------- 1 0.0 2.0 73 143
+ 0.014 0 1 cbr 1000 ------- 1 0.0 2.0 74 144
+ 0.014 3 1 cbr 1000 ------- 2 3.0 2.0 70 145
- 0.014 3 1 cbr 1000 ------- 2 3.0 2.0 70 145
+ 0.014 3 1 cbr 1000 ------- 2 3.0 2.0 71 146
+ 0.014 3 1 cbr 1000 ------- 2 3.0 2.0 72 147
+ 0.014 3 1 cbr 1000 ------- 2 3.0 2.0 73 148
+ 0.014 3 1 cbr 1000 ------- 2 3.0 2.0 74 149
- 0.01408 0 1 cbr 1000 ------- 1 0.0 2.0 71 141
- 0.01408 3 1 cbr 1000 ------- 2 3.0 2.0 71 146
- 0.01416 0 1 cbr 1000 ------- 1 0.0 2.0 72 142
- 0.01416 3 1 cbr 1000 ------- 2 3.0 2.0 72 147
- 0.01424 0 1 cbr 1000 ------- 1 0.0 2.0 73 143
- 0.01424 3 1 cbr 1000 ------- 2 3.0 2.0 73 148
- 0.01432 0 1 cbr 1000 ------- 1 0.0 2.0 74 144
- 0.01432 3 1 cbr 1000 ------- 2 3.0 2.0 74 149
+ 0.015 0 1 cbr 1000 ------- 1 0.0 2.0 75 150
- 0.015 0 1 cbr 1000 ------- 1 0.0 2.0 75 150
+ 0.015 0 1 cbr 1000 ------- 1 0.0 2.0 76 151
+ 0.015 0 1 cbr 1000 ------- 1 0.0 2.0 77 152
+ 0.015 0 1 cbr 1000 ------- 1 0.0 2.0 78 153
+ 0.015 0 1 cbr 1000 ------- 1 0.0 2.0 79 154
+ 0.015 3 1 cbr 1000 ------- 2 3.0 2.0 75 155
- 0.015 3 1 cbr 1000 ------- 2 3.0 2.0 75 155
+ 0.015 3 1 cbr 1000 ------- 2 3.0 2.0 76 156
+ 0.015 3 1 cbr 1000 ------- 2 3.0 2.0 77 157
+ 0.015 3 1 cbr 1000 ------- 2 3.0 2.0 78 158
+ 0.015 3 1 cbr 1000 ------- 2 3.0 2.0 79 159
- 0.01508 0 1 cbr 1000 ------- 1 0.0 2.0 76 151
- 0.01508 3 1 cbr 1000 ------- 2 3.0 2.0 76 156
- 0.01516 0 1 cbr 1000 ------- 1 0.0 2.0 77 152
- 0.01516 3 1 cbr 1000 ------- 2 3.0 2.0 77 157
- 0.01524 0 1 cbr 1000 ------- 1 0.0 2.0 78 153
- 0.01524 3 1 cbr 1000 ------- 2 3.0 2.0 78 158
- 0.01532 0 1 cbr 1000 ------- 1 0.0 2.0 79 154
- 0.01532 3 1 cbr 1000 ------- 2 3.0 2.0 79 159
+ 0.016 0 1 cbr 1000 ------- 1 0.0 2.0 80 160
- 0.016 0 1 cbr 1000 ------- 1 0.0 2.0 80 160
+ 0.016 0 1 cbr 1000 ------- 1 0.0 2.0 81 161
+ 0.016 0 1 cbr 1000 ------- 1 0.0 2.0 82 162
+ 0.016 0 1 cbr 1000 ------- 1 0.0 2.0 83 163
+ 0.016 0 1 cbr 1000 ------- 1 0.0 2.0 84 164
+ 0.016 3 1 cbr 1000 ------- 2 3.0 2.0 80 165
- 0.016 3 1 cbr 1000 ------- 2 3.0 2.0 80 165
+ 0.016 3 1 cbr 1000 ------- 2 3.0 2.0 81 166
+ 0.016 3 1 cbr 1000 ------- 2 3.0 2.0 82 167
+ 0.016 3 1 cbr 1000 ------- 2 3.0 2.0 83 168
+ 0.016 3 1 cbr 1000 ------- 2 3.0 2.0 84 169
- 0.01608 0 1 cbr 1000 ------- 1 0.0 2.0 81 161
- 0.01608 3 1 cbr 1000 ------- 2 3.0 2.0 81 166
- 0.01616 0 1 cbr 1000 ------- 1 0.0 2.0 82 162
- 0.01616 3 1 cbr 1000 ------- 2 3.0 2.0 82 167
- 0.01624 0 1 cbr 1000 ------- 1 0.0 2.0 83 163
- 0.01624 3 1 cbr 1000 ------- 2 3.0 2.0 83 168
- 0.01632 0 1 cbr 1000 ------- 1 0.0 2.0 84 164
- 0.01632 3 1 cbr 1000 ------- 2 3.0 2.0 84 169
+ 0.017 0 1 cbr 1000 ------- 1 0.0 2.0 85 170
- 0.017 0 1 cbr 1000 ------- 1 0.0 2.0 85 170
+ 0.017 0 1 cbr 1000 ------- 1 0.0 2.0 86 171
+ 0.017 0 1 cbr 1000 ------- 1 0.0 2.0 87 172
+ 0.017 0 1 cbr 1000 ------- 1 0.0 2.0 88 173
+ 0.017 0 1 cbr 1000 ------- 1 0.0 2.0 89 174
+ 0.017 3 1 cbr 1000 ------- 2 3.0 2.0 85 175
- 0.017 3 1 cbr 1000 ------- 2 3.0 2.0 85 175
+ 0.017 3 1 cbr 1000 ------- 2 3.0 2.0 86 176
+ 0.017 3 1 cbr 1000 ------- 2 3.0 2.0 87 177
+ 0.017 3 1 cbr 1000 ------- 2 3.0 2.0 88 178
+ 0.017 3 1 cbr 1000 ------- 2 3.0 2.0 89 179
- 0.01708 0 1 cbr 1000 ------- 1 0.0 2.0 86 171
- 0.01708 3 1 cbr 1000 ------- 2 3.0 2.0 86 176
- 0.01716 0 1 cbr 1000 ------- 1 0.0 2.0 87 172
- 0.01716 3 1 cbr 1000 ------- 2 3.0 2.0 87 177
- 0.01724 0 1 cbr 1000 ------- 1 0.0 2.0 88 173
- 0.01724 3 1 cbr 1000 ------- 2 3.0 2.0 88 178
- 0.01732 0 1 cbr 1000 ------- 1 0.0 2.0 89 174
- 0.01732 3 1 cbr 1000 ------- 2 3.0 2.0 89 179
+ 0.018 0 1 cbr 1000 ------- 1 0.0 2.0 90 180
- 0.018 0 1 cbr 1000 ------- 1 0.0 2.0 90 180
+ 0.018 0 1 cbr 1000 ------- 1 0.0 2.0 91 181
+ 0.018 0 1 cbr 1000 ------- 1 0.0 2.0 92 182
+ 0.018 0 1 cbr 1000 ------- 1 0.0 2.0 93 183
+ 0.018 0 1 cbr 1000 ------- 1 0.0 2.0 94 184
+ 0.018 3 1 cbr 1000 ------- 2 3.0 2.0 90 185
- 0.018 3 1 cbr 1000 ------- 2 3.0 2.0 90 185
+ 0.018 3 1 cbr 1000 ------- 2 3.0 2.0 91 186
+ 0.018 3 1 cbr 1000 ------- 2 3.0 2.0 92 187
+ 0.018 3 1 cbr 1000 ------- 2 3.0 2.0 93 188
+ 0.018 3 1 cbr 1000 ------- 2 3.0 2.0 94 189
- 0.01808 0 1 cbr 1000 ------- 1 0.0 2.0 91 181
- 0.01808 3 1 cbr 1000 ------- 2 3.0 2.0 91 186
- 0.01816 0 1 cbr 1000 ------- 1 0.0 2.0 92 182
- 0.01816 3 1 cbr 1000 ------- 2 3.0 2.0 92 187
- 0.01824 0 1 cbr 1000 ------- 1 0.0 2.0 93 183
- 0.01824 3 1 cbr 1000 ------- 2 3.0 2.0 93 188
- 0.01832 0 1 cbr 1000 ------- 1 0.0 2.0 94 184
- 0.01832 3 1 cbr 1000 ------- 2 3.0 2.0 94 189
+ 0.019 0 1 cbr 1000 ------- 1 0.0 2.0 95 190
- 0.019 0 1 cbr 1000 ------- 1 0.0 2.0 95 190
+ 0.019 0 1 cbr 1000 ------- 1 0.0 2.0 96 191
+ 0.019 0 1 cbr 1000 ------- 1 0.0 2.0 97 192
+ 0.019 0 1 cbr 1000 ------- 1 0.0 2.0 98 193
+ 0.019 0 1 cbr 1000 ------- 1 0.0 2.0 99 194
+ 0.019 3 1 cbr 1000 ------- 2 3.0 2.0 95 195
- 0.019 3 1 cbr 1000 ------- 2 3.0 2.0 95 195
+ 0.019 3 1 cbr 1000 ------- 2 3.0 2.0 96 196
+ 0.019 3 1 cbr 1000 ------- 2 3.0 2.0 97 197
+ 0.019 3 1 cbr 1000 ------- 2 3.0 2.0 98 198
+ 0.019 3 1 cbr 1000 ------- 2 3.0 2.0 99 199
- 0.01908 0 1 cbr 1000 ------- 1 0.0 2.0 96 191
- 0.01908 3 1 cbr 1000 ------- 2 3.0 2.0 96 196
- 0.01916 0 1 cbr 1000 ------- 1 0.0 2.0 97 192
- 0.01916 3 1 cbr 1000 ------- 2 3.0 2.0 97 197
- 0.01924 0 1 cbr 1000 ------- 1 0.0 2.0 98 193
- 0.01924 3 1 cbr 1000 ------- 2 3.0 2.0 98 198
- 0.01932 0 1 cbr 1000 ------- 1 0.0 2.0 99 194
- 0.01932 3 1 cbr 1000 ------- 2 3.0 2.0 99 199
+ 0.02 0 1 cbr 1000 ------- 1 0.0 2.0 100 200
- 0.02 0 1 cbr 1000 ------- 1 0.0 2.0 100 200
+ 0.02 0 1 cbr 1000 ------- 1 0.0 2.0 101 201
+ 0.02 0 1 cbr 1000 ------- 1 0.0 2.0 102 202
+ 0.02 0 1 cbr 1000 ------- 1 0.0 2.0 103 203
+ 0.02 0 1 cbr 1000 ------- 1 0.0 2.0 104 204
+ 0.02 3 1 cbr 1000 ------- 2 3.0 2.0 100 205
- 0.02 3 1 cbr 1000 ------- 2 3.0 2.0 100 205
+ 0.02 3 1 cbr 1000 ------- 2 3.0 2.0 101 206
+ 0.02 3 1 cbr 1000 ------- 2 3.0 2.0 102 207
+ 0.02 3 1 cbr 1000 ------- 2 3.0 2.0 103 208
+ 0.02 3 1 cbr 1000 ------- 2 3.0 2.0 104 209
- 0.02008 0 1 cbr 1000 ------- 1 0.0 2.0 101 201
- 0.02008 3 1 cbr 1000 ------- 2 3.0 2.0 101 206
- 0.02016 0 1 cbr 1000 ------- 1 0.0 2.0 102 202
- 0.02016 3 1 cbr 1000 ------- 2 3.0 2.0 102 207
- 0.02024 0 1 cbr 1000 ------- 1 0.0 2.0 103 203
- 0.02024 3 1 cbr 1000 ------- 2 3.0 2.0 103 208
- 0.02032 0 1 cbr 1000 ------- 1 0.0 2.0 104 204
- 0.02032 3 1 cbr 1000 ------- 2 3.0 2.0 104 209
+ 0.021 0 1 cbr 1000 ------- 1 0.0 2.0 105 210
- 0.021 0 1 cbr 1000 ------- 1 0.0 2.0 105 210
+ 0.021 0 1 cbr 1000 ------- 1 0.0 2.0 106 211
+ 0.021 0 1 cbr 1000 ------- 1 0.0 2.0 107 212
+ 0.021 0 1 cbr 1000 ------- 1 0.0 2.0 108 213
+ 0.021 0 1 cbr 1000 ------- 1 0.0 2.0 109 214
+ 0.021 3 1 cbr 1000 ------- 2 3.0 2.0 105 215
- 0.021 3 1 cbr 1000 ------- 2 3.0 2.0 105 215
+ 0.021 3 1 cbr 1000 ------- 2 3.0 2.0 106 216
+ 0.021 3 1 cbr 1000 ------- 2 3.0 2.0 107 217
+ 0.021 3 1 cbr 1000 ------- 2 3.0 2.0 108 218
+ 0.021 3 1 cbr 1000 ------- 2 3.0 2.0 109 219
- 0.02108 0 1 cbr 1000 ------- 1 0.0 2.0 106 211
- 0.02108 3 1 cbr 1000 ------- 2 3.0 2.0 106 216
- 0.02116 0 1 cbr 1000 ------- 1 0.0 2.0 107 212
- 0.02116 3 1 cbr 1000 ------- 2 3.0 2.0 107 217
- 0.02124 0 1 cbr 1000 ------- 1 0.0 2.0 108 213
- 0.02124 3 1 cbr 1000 ------- 2 3.0 2.0 108 218
- 0.02132 0 1 cbr 1000 ------- 1 0.0 2.0 109 214
- 0.02132 3 1 cbr 1000 ------- 2 3.0 2.0 109 219
+ 0.022 0 1 cbr 1000 ------- 1 0.0 2.0 110 220
- 0.022 0 1 cbr 1000 ------- 1 0.0 2.0 110 220
+ 0.022 0 1 cbr 1000 ------- 1 0.0 2.0 111 221
+ 0.022 0 1 cbr 1000 ------- 1 0.0 2.0 112 222
+ 0.022 0 1 cbr 1000 ------- 1 0.0 2.0 113 223
+ 0.022 0 1 cbr 1000 ------- 1 0.0 2.0 114 224
+ 0.022 3 1 cbr 1000 ------- 2 3.0 2.0 110 225
- 0.022 3 1 cbr 1000 ------- 2 3.0 2.0 110 225
+ 0.022 3 1 cbr 1000 ------- 2 3.0 2.0 111 226
+ 0.022 3 1 cbr 1000 ------- 2 3.0 2.0 112 227
+ 0.022 3 1 cbr 1000 ------- 2 3.0 2.0 113 228
+ 0.022 3 1 cbr 1000 ------- 2 3.0 2.0 114 229
- 0.02208 0 1 cbr 1000 ------- 1 0.0 2.0 111 221
- 0.02208 3 1 cbr 1000 ------- 2 3.0 2.0 111 226
- 0.02216 0 1 cbr 1000 ------- 1 0.0 2.0 112 222
- 0.02216 3 1 cbr 1000 ------- 2 3.0 2.0 112 227
- 0.02224 0 1 cbr 1000 ------- 1 0.0 2.0 113 223
- 0.02224 3 1 cbr 1000 ------- 2 3.0 2.0 113 228
- 0.02232 0 1 cbr 1000 ------- 1 0.0 2.0 114 224
- 0.02232 3 1 cbr 1000 ------- 2 3.0 2.0 114 229
+ 0.023 0 1 cbr 1000 ------- 1 0.0 2.0 115 230
- 0.023 0 1 cbr 1000 ------- 1 0.0 2.0 115 230
+ 0.023 0 1 cbr 1000 ------- 1 0.0 2.0 116 231
+ 0.023 0 1 cbr 1000 ------- 1 0.0 2.0 117 232
+ 0.023 0 1 cbr 1000 ------- 1 0.0 2.0 118 233
+ 0.023 0 1 cbr 1000 ------- 1 0.0 2.0 119 234
+ 0.023 3 1 cbr 1000 ------- 2 3.0 2.0 115 235
- 0.023 3 1 cbr 1000 ------- 2 3.0 2.0 115 235
+ 0.023 3 1 cbr 1000 ------- 2 3.0 2.0 116 236
+ 0.023 3 1 cbr 1000 ------- 2 3.0 2.0 117 237
+ 0.023 3 1 cbr 1000 ------- 2 3.0 2.0 118 238
+ 0.023 3 1 cbr 1000 ------- 2 3.0 2.0 119 239
- 0.02308 0 1 cbr 1000 ------- 1 0.0 2.0 116 231
- 0.02308 3 1 cbr 1000 ------- 2 3.0 2.0 116 236
- 0.02316 0 1 cbr 1000 ------- 1 0.0 2.0 117 232
- 0.02316 3 1 cbr 1000 ------- 2 3.0 2.0 117 237
- 0.02324 0 1 cbr 1000 ------- 1 0.0 2.0 118 233
- 0.02324 3 1 cbr 1000 ------- 2 3.0 2.0 118 238
- 0.02332 0 1 cbr 1000 ------- 1 0.0 2.0 119 234
- 0.02332 3 1 cbr 1000 ------- 2 3.0 2.0 119 239
+ 0.024 0 1 cbr 1000 ------- 1 0.0 2.0 120 240
- 0.024 0 1 cbr 1000 ------- 1 0.0 2.0 120 240
+ 0.024 0 1 cbr 1000 ------- 1 0.0 2.0 121 241
+ 0.024 0 1 cbr 1000 ------- 1 0.0 2.0 122 242
+ 0.024 0 1 cbr 1000 ------- 1 0.0 2.0 123 243
+ 0.024 0 1 cbr 1000 ------- 1 0.0 2.0 124 244
+ 0.024 3 1 cbr 1000 ------- 2 3.0 2.0 120 245
- 0.024 3 1 cbr 1000 ------- 2 3.0 2.0 120 245
+ 0.024 3 1 cbr 1000 ------- 2 3.0 2.0 121 246
+ 0.024 3 1 cbr 1000 ------- 2 3.0 2.0 122 247
+ 0.024 3 1 cbr 1000 ------- 2 3.0 2.0 123 248
+ 0.024 3 1 cbr 1000 ------- 2 3.0 2.0 124 249
- 0.02408 0 1 cbr 1000 ------- 1 0.0 2.0 121 241
- 0.02408 3 1 cbr 1000 ------- 2 3.0 2.0 121 246
- 0.02416 0 1 cbr 1000 ------- 1 0.0 2.0 122 242
- 0.02416 3 1 cbr 1000 ------- 2 3.0 2.0 122 247
- 0.02424 0 1 cbr 1000 ------- 1 0.0 2.0 123 243
- 0.02424 3 1 cbr 1000 ------- 2 3.0 2.0 123 248
- 0.02432 0 1 cbr 1000 ------- 1 0.0 2.0 124 244
- 0.02432 3 1 cbr 1000 ------- 2 3.0 2.0 124 249
+ 0.025 0 1 cbr 1000 ------- 1 0.0 2.0 125 250
- 0.025 0 1 cbr 1000 ------- 1 0.0 2.0 125 250
+ 0.025 0 1 cbr 1000 ------- 1 0.0 2.0 126 251
+ 0.025 0 1 cbr 1000 ------- 1 0.0 2.0 127 252
+ 0.025 0 1 cbr 1000 ------- 1 0.0 2.0 128 253
+ 0.025 0 1 cbr 1000 ------- 1 0.0 2.0 129 254
+ 0.025 3 1 cbr 1000 ------- 2 3.0 2.0 125 255
- 0.025 3 1 cbr 1000 ------- 2 3.0 2.0 125 255
+ 0.025 3 1 cbr 1000 ------- 2 3.0 2.0 126 256
+ 0.025 3 1 cbr 1000 ------- 2 3.0 2.0 127 257
+ 0.025 3 1 cbr 1000 ------- 2 3.0 2.0 128 258
+ 0.025 3 1 cbr 1000 ------- 2 3.0 2.0 129 259
- 0.02508 0 1 cbr 1000 ------- 1 0.0 2.0 126 251
- 0.02508 3 1 cbr 1000 ------- 2 3.0 2.0 126 256
- 0.02516 0 1 cbr 1000 ------- 1 0.0 2.0 127 252
- 0.02516 3 1 cbr 1000 ------- 2 3.0 2.0 127 257
- 0.02524 0 1 cbr 1000 ------- 1 0.0 2.0 128 253
- 0.02524 3 1 cbr 1000 ------- 2 3.0 2.0 128 258
- 0.02532 0 1 cbr 1000 ------- 1 0.0 2.0 129 254
- 0.02532 3 1 cbr 1000 ------- 2 3.0 2.0 129 259
+ 0.026 0 1 cbr 1000 ------- 1 0.0 2.0 130 260
- 0.026 0 1 cbr 1000 ------- 1 0.0 2.0 130 260
+ 0.026 0 1 cbr 1000 ------- 1 0.0 2.0 131 261
+ 0.026 0 1 cbr 1000 ------- 1 0.0 2.0 132 262
+ 0.026 0 1 cbr 1000 ------- 1 0.0 2.0 133 263
+ 0.026 0 1 cbr 1000 ------- 1 0.0 2.0 134 264
+ 0.026 3 1 cbr 1000 ------- 2 3.0 2.0 130 265
- 0.026 3 1 cbr 1000 ------- 2 3.0 2.0 130 265
+ 0.026 3 1 cbr 1000 ------- 2 3.0 2.0 131 266
+ 0.026 3 1 cbr 1000 ------- 2 3.0 2.0 132 267
+ 0.026 3 1 cbr 1000 ------- 2 3.0 2.0 133 268
+ 0.026 3 1 cbr 1000 ------- 2 3.0 2.0 134 269
- 0.02608 0 1 cbr 1000 ------- 1 0.0 2.0 131 261
- 0.02608 3 1 cbr 1000 ------- 2 3.0 2.0 131 266
- 0.02616 0 1 cbr 1000 ------- 1 0.0 2.0 132 262
- 0.02616 3 1 cbr 1000 ------- 2 3.0 2.0 132 267
- 0.02624 0 1 cbr 1000 ------- 1 0.0 2.0 133 263
- 0.02624 3 1 cbr 1000 ------- 2 3.0 2.0 133 268
- 0.02632 0 1 cbr 1000 ------- 1 0.0 2.0 134 264
- 0.02632 3 1 cbr 1000 ------- 2 3.0 2.0 134 269
+ 0.027 0 1 cbr 1000 ------- 1 0.0 2.0 135 270
- 0.027 0 1 cbr 1000 ------- 1 0.0 2.0 135 270
+ 0.027 0 1 cbr 1000 ------- 1 0.0 2.0 136 271
+ 0.027 0 1 cbr 1000 ------- 1 0.0 2.0 137 272
+ 0.027 0 1 cbr 1000 ------- 1 0.0 2.0 138 273
+ 0.027 0 1 cbr 1000 ------- 1 0.0 2.0 139 274
+ 0.027 3 1 cbr 1000 ------- 2 3.0 2.0 135 275
- 0.027 3 1 cbr 1000 ------- 2 3.0 2.0 135 275
+ 0.027 3 1 cbr 1000 ------- 2 3.0 2.0 136 276
+ 0.027 3 1 cbr 1000 ------- 2 3.0 2.0 137 277
+ 0.027 3 1 cbr 1000 ------- 2 3.0 2.0 138 278
+ 0.027 3 1 cbr 1000 ------- 2 3.0 2.0 139 279
- 0.02708 0 1 cbr 1000 ------- 1 0.0 2.0 136 271
- 0.02708 3 1 cbr 1000 ------- 2 3.0 2.0 136 276
- 0.02716 0 1 cbr 1000 ------- 1 0.0 2.0 137 272
- 0.02716 3 1 cbr 1000 ------- 2 3.0 2.0 137 277
- 0.02724 0 1 cbr 1000 ------- 1 0.0 2.0 138 273
- 0.02724 3 1 cbr 1000 ------- 2 3.0 2.0 138 278
- 0.02732 0 1 cbr 1000 ------- 1 0.0 2.0 139 274
- 0.02732 3 1 cbr 1000 ------- 2 3.0 2.0 139 279
+ 0.028 0 1 cbr 1000 ------- 1 0.0 2.0 140 280
- 0.028 0 1 cbr 1000 ------- 1 0.0 2.0 140 280
+ 0.028 0 1 cbr 1000 ------- 1 0.0 2.0 141 281
+ 0.028 0 1 cbr 1000 ------- 1 0.0 2.0 142 282
+ 0.028 0 1 cbr 1000 ------- 1 0.0 2.0 143 283
+ 0.028 0 1 cbr 1000 ------- 1 0.0 2.0 144 284
+ 0.028 3 1 cbr 1000 ------- 2 3.0 2.0 140 285
- 0.028 3 1 cbr 1000 ------- 2 3.0 2.0 140 285
+ 0.028 3 1 cbr 1000 ------- 2 3.0 2.0 141 286
+ 0.028 3 1 cbr 1000 ------- 2 3.0 2.0 142 287
+ 0.028 3 1 cbr 1000 ------- 2 3.0 2.0 143 288
+ 0.028 3 1 cbr 1000 ------- 2 3.0 2.0 144 289
- 0.02808 0 1 cbr 1000 ------- 1 0.0 2.0 141 281
- 0.02808 3 1 cbr 1000 ------- 2 3.0 2.0 141 286
- 0.02816 0 1 cbr 1000 ------- 1 0.0 2.0 142 282
- 0.02816 3 1 cbr 1000 ------- 2 3.0 2.0 142 287
- 0.02824 0 1 cbr 1000 ------- 1 0.0 2.0 143 283
- 0.02824 3 1 cbr 1000 ------- 2 3.0 2.0 143 288
- 0.02832 0 1 cbr 1000 ------- 1 0.0 2.0 144 284
- 0.02832 3 1 cbr 1000 ------- 2 3.0 2.0 144 289
+ 0.029 0 1 cbr 1000 ------- 1 0.0 2.0 145 290
- 0.029 0 1 cbr 1000 ------- 1 0.0 2.0 145 290
+ 0.029 0 1 cbr 1000 ------- 1 0.0 2.0 146 291
+ 0.029 0 1 cbr 1000 ------- 1 0.0 2.0 147 292
+ 0.029 0 1 cbr 1000 ------- 1 0.0 2.0 148 293
+ 0.029 0 1 cbr 1000 ------- 1 0.0 2.0 149 294
+ 0.029 3 1 cbr 1000 ------- 2 3.0 2.0 145 295
- 0.029 3 1 cbr 1000 ------- 2 3.0 2.0 145 295
+ 0.029 3 1 cbr 1000 ------- 2 3.0 2.0 146 296
+ 0.029 3 1 cbr 1000 ------- 2 3.0 2.0 147 297
+ 0.029 3 1 cbr 1000 ------- 2 3.0 2.0 148 298
+ 0.029 3 1 cbr 1000 ------- 2 3.0 2.0 149 299
- 0.02908 0 1 cbr 1000 ------- 1 0.0 2.0 146 291
- 0.02908 3 1 cbr 1000 ------- 2 3.0 2.0 146 296
- 0.02916 0 1 cbr 1000 ------- 1 0.0 2.0 147 292
- 0.02916 3 1 cbr 1000 ------- 2 3.0 2.0 147 297
- 0.02924 0 1 cbr 1000 ------- 1 0.0 2.0 148 293
- 0.02924 3 1 cbr 1000 ------- 2 3.0 2.0 148 298
- 0.02932 0 1 cbr 1000 ------- 1 0.0 2.0 149 294
- 0.02932 3 1 cbr 1000 ------- 2 3.0 2.0 149 299
+ 0.03 0 1 cbr 1000 ------- 1 0.0 2.0 150 300
- 0.03 0 1 cbr 1000 ------- 1 0.0 2.0 150 300
+ 0.03 0 1 cbr 1000 ------- 1 0.0 2.0 151 301
+ 0.03 0 1 cbr 1000 ------- 1 0.0 2.0 152 302
+ 0.03 0 1 cbr 1000 ------- 1 0.0 2.0 153 303
+ 0.03 0 1 cbr 1000 ------- 1 0.0 2.0 154 304
+ 0.03 3 1 cbr 1000 ------- 2 3.0 2.0 150 305
- 0.03 3 1 cbr 1000 ------- 2 3.0 2.0 150 305
+ 0.03 3 1 cbr 1000 ------- 2 3.0 2.0 151 306
+ 0.03 3 1 cbr 1000 ------- 2 3.0 2.0 152 307
+ 0.03 3 1 cbr 1000 ------- 2 3.0 2.0 153 308
+ 0.03 3 1 cbr 1000 ------- 2 3.0 2.0 154 309
- 0.03008 0 1 cbr 1000 ------- 1 0.0 2.0 151 301
- 0.03008 3 1 cbr 1000 ------- 2 3.0 2.0 151 306
- 0.03016 0 1 cbr 1000 ------- 1 0.0 2.0 152 302
- 0.03016 3 1 cbr 1000 ------- 2 3.0 2.0 152 307
- 0.03024 0 1 cbr 1000 ------- 1 0.0 2.0 153 303
- 0.03024 3 1 cbr 1000 ------- 2 3.0 2.0 153 308
- 0.03032 0 1 cbr 1000 ------- 1 0.0 2.0 154 304
- 0.03032 3 1 cbr 1000 ------- 2 3.0 2.0 154 309
+ 0.031 0 1 cbr 1000 ------- 1 0.0 2.0 155 310
- 0.031 0 1 cbr 1000 ------- 1 0.0 2.0 155 310
+ 0.031 0 1 cbr 1000 ------- 1 0.0 2.0 156 311
+ 0.031 0 1 cbr 1000 ------- 1 0.0 2.0 157 312
+ 0.031 0 1 cbr 1000 ------- 1 0.0 2.0 158 313
+ 0.031 0 1 cbr 1000 ------- 1 0.0 2.0 159 314
+ 0.031 3 1 cbr 1000 ------- 2 3.0 2.0 155 315
- 0.031 3 1 cbr 1000 ------- 2 3.0 2.0 155 315
+ 0.031 3 1 cbr 1000 ------- 2 3.0 2.0 156 316
+ 0.031 3 1 cbr 1000 ------- 2 3.0 2.0 157 317
+ 0.031 3 1 cbr 1000 ------- 2 3.0 2.0 158 318
+ 0.031 3 1 cbr 1000 ------- 2 3.0 2.0 159 319
- 0.03108 0 1 cbr 1000 ------- 1 0.0 2.0 156 311
- 0.03108 3 1 cbr 1000 ------- 2 3.0 2.0 156 316
- 0.03116 0 1 cbr 1000 ------- 1 0.0 2.0 157 312
- 0.03116 3 1 cbr 1000 ------- 2 3.0 2.0 157 317
- 0.03124 0 1 cbr 1000 ------- 1 0.0 2.0 158 313
- 0.03124 3 1 cbr 1000 ------- 2 3.0 2.0 158 318
- 0.03132 0 1 cbr 1000 ------- 1 0.0 2.0 159 314
- 0.03132 3 1 cbr 1000 ------- 2 3.0 2.0 159 319
+ 0.032 0 1 cbr 1000 ------- 1 0.0 2.0 160 320
- 0.032 0 1 cbr 1000 ------- 1 0.0 2.0 160 320
+ 0.032 0 1 cbr 1000 ------- 1 0.0 2.0 161 321