+ 0.1 1 0 ping 500000 ------- 1 1.0 4.0 -1 0
- 0.1 1 0 ping 500000 ------- 1 1.0 4.0 -1 0
+ 0.2 1 0 ping 500000 ------- 1 1.0 4.0 -1 1
+ 0.3 2 0 ping 500000 ------- 2 2.0 5.0 -1 2
- 0.3 2 0 ping 500000 ------- 2 2.0 5.0 -1 2
+ 0.4 2 0 ping 500000 ------- 2 2.0 5.0 -1 3
+ 0.5 3 0 ping 500000 ------- 3 3.0 6.0 -1 4
- 0.5 3 0 ping 500000 ------- 3 3.0 6.0 -1 4
- 0.5 1 0 ping 500000 ------- 1 1.0 4.0 -1 1
+ 0.6 3 0 ping 500000 ------- 3 3.0 6.0 -1 5
r 0.6 1 0 ping 500000 ------- 1 1.0 4.0 -1 0
+ 0.6 0 4 ping 500000 ------- 1 1.0 4.0 -1 0
- 0.6 0 4 ping 500000 ------- 1 1.0 4.0 -1 0
+ 0.7 4 0 ping 500000 ------- 4 4.0 1.0 -1 6
d 0.7 4 0 ping 500000 ------- 4 4.0 1.0 -1 6
- 0.7 2 0 ping 500000 ------- 2 2.0 5.0 -1 3
+ 0.8 4 0 ping 500000 ------- 4 4.0 1.0 -1 7
d 0.8 4 0 ping 500000 ------- 4 4.0 1.0 -1 7
r 0.8 2 0 ping 500000 ------- 2 2.0 5.0 -1 2
+ 0.8 0 5 ping 500000 ------- 2 2.0 5.0 -1 2
- 0.8 0 5 ping 500000 ------- 2 2.0 5.0 -1 2
+ 0.9 5 0 ping 500000 ------- 5 5.0 2.0 -1 8
d 0.9 5 0 ping 500000 ------- 5 5.0 2.0 -1 8
- 0.9 3 0 ping 500000 ------- 3 3.0 6.0 -1 5
+ 1 5 0 ping 500000 ------- 5 5.0 2.0 -1 9
d 1 5 0 ping 500000 ------- 5 5.0 2.0 -1 9
r 1 3 0 ping 500000 ------- 3 3.0 6.0 -1 4
+ 1 0 6 ping 500000 ------- 3 3.0 6.0 -1 4
- 1 0 6 ping 500000 ------- 3 3.0 6.0 -1 4
r 1 1 0 ping 500000 ------- 1 1.0 4.0 -1 1
+ 1 0 4 ping 500000 ------- 1 1.0 4.0 -1 1
- 1 0 4 ping 500000 ------- 1 1.0 4.0 -1 1
+ 1.1 6 0 ping 500000 ------- 6 6.0 3.0 -1 10
d 1.1 6 0 ping 500000 ------- 6 6.0 3.0 -1 10
r 1.1 0 4 ping 500000 ------- 1 1.0 4.0 -1 0
+ 1.1 4 0 ping 500000 ------- 4 4.0 1.0 -1 11
d 1.1 4 0 ping 500000 ------- 4 4.0 1.0 -1 11
+ 1.2 6 0 ping 500000 ------- 6 6.0 3.0 -1 12
d 1.2 6 0 ping 500000 ------- 6 6.0 3.0 -1 12
r 1.2 2 0 ping 500000 ------- 2 2.0 5.0 -1 3
+ 1.2 0 5 ping 500000 ------- 2 2.0 5.0 -1 3
- 1.2 0 5 ping 500000 ------- 2 2.0 5.0 -1 3
r 1.3 0 5 ping 500000 ------- 2 2.0 5.0 -1 2
+ 1.3 5 0 ping 500000 ------- 5 5.0 2.0 -1 13
d 1.3 5 0 ping 500000 ------- 5 5.0 2.0 -1 13
r 1.4 3 0 ping 500000 ------- 3 3.0 6.0 -1 5
+ 1.4 0 6 ping 500000 ------- 3 3.0 6.0 -1 5
- 1.4 0 6 ping 500000 ------- 3 3.0 6.0 -1 5
r 1.5 0 6 ping 500000 ------- 3 3.0 6.0 -1 4
+ 1.5 6 0 ping 500000 ------- 6 6.0 3.0 -1 14
d 1.5 6 0 ping 500000 ------- 6 6.0 3.0 -1 14
r 1.5 0 4 ping 500000 ------- 1 1.0 4.0 -1 1
+ 1.5 4 0 ping 500000 ------- 4 4.0 1.0 -1 15
d 1.5 4 0 ping 500000 ------- 4 4.0 1.0 -1 15
r 1.7 0 5 ping 500000 ------- 2 2.0 5.0 -1 3
+ 1.7 5 0 ping 500000 ------- 5 5.0 2.0 -1 16
d 1.7 5 0 ping 500000 ------- 5 5.0 2.0 -1 16
r 1.9 0 6 ping 500000 ------- 3 3.0 6.0 -1 5
+ 1.9 6 0 ping 500000 ------- 6 6.0 3.0 -1 17
d 1.9 6 0 ping 500000 ------- 6 6.0 3.0 -1 17
